# test.data

5 atoms
4 bonds

1 atom types
1 bond types

0 10 xlo xhi
0 10 ylo yhi
0 10 zlo zhi

Atoms

1 1 1 0.0 0.0 0.0 0.0
2 1 1 0 1.0 0.0 0.0
3 1 1 0 2.0 0.0 0.0
4 1 1 0 3.0 0.0 0.0
5 1 1 0 4.0 0.0 0.0

Bonds

1 1 1 2
2 1 2 3
3 1 3 4
4 1 4 5
